t 0.005 /NodeList/0/DeviceList/0/$ns3::WifiNetDevice/Phy/State/Tx OfdmRate6Mbps ns3::WifiMacHeader (DATA ToDS=0, FromDS=0, MoreFrag=0, Retry=0, MoreData=0 Duration/ID=0us, DA=ff:ff:ff:ff:ff:ff, SA=00:00:00:00:00:01, BSSID=00:00:00:00:00:01, FragNumber=0, SeqNumber=0) ns3::LlcSnapHeader (type 0x806) ns3::ArpHeader (request source mac: 00-06-00:00:00:00:00:01 source ipv4: 10.0.0.1 dest ipv4: 10.0.0.10) ns3::WifiMacTrailer ()
r 0.00511201 OfdmRate6Mbps/NodeList/1/DeviceList/0/$ns3::WifiNetDevice/Phy/State/RxOk ns3::WifiMacHeader (DATA ToDS=0, FromDS=0, MoreFrag=0, Retry=0, MoreData=0 Duration/ID=0us, DA=ff:ff:ff:ff:ff:ff, SA=00:00:00:00:00:01, BSSID=00:00:00:00:00:01, FragNumber=0, SeqNumber=0) ns3::LlcSnapHeader (type 0x806) ns3::ArpHeader (request source mac: 00-06-00:00:00:00:00:01 source ipv4: 10.0.0.1 dest ipv4: 10.0.0.10) ns3::WifiMacTrailer ()
r 0.00511201 OfdmRate6Mbps/NodeList/2/DeviceList/0/$ns3::WifiNetDevice/Phy/State/RxOk ns3::WifiMacHeader (DATA ToDS=0, FromDS=0, MoreFrag=0, Retry=0, MoreData=0 Duration/ID=0us, DA=ff:ff:ff:ff:ff:ff, SA=00:00:00:00:00:01, BSSID=00:00:00:00:00:01, FragNumber=0, SeqNumber=0) ns3::LlcSnapHeader (type 0x806) ns3::ArpHeader (request source mac: 00-06-00:00:00:00:00:01 source ipv4: 10.0.0.1 dest ipv4: 10.0.0.10) ns3::WifiMacTrailer ()
r 0.00511202 OfdmRate6Mbps/NodeList/3/DeviceList/0/$ns3::WifiNetDevice/Phy/State/RxOk ns3::WifiMacHeader (DATA ToDS=0, FromDS=0, MoreFrag=0, Retry=0, MoreData=0 Duration/ID=0us, DA=ff:ff:ff:ff:ff:ff, SA=00:00:00:00:00:01, BSSID=00:00:00:00:00:01, FragNumber=0, SeqNumber=0) ns3::LlcSnapHeader (type 0x806) ns3::ArpHeader (request source mac: 00-06-00:00:00:00:00:01 source ipv4: 10.0.0.1 dest ipv4: 10.0.0.10) ns3::WifiMacTrailer ()
r 0.00511203 OfdmRate6Mbps/NodeList/4/DeviceList/0/$ns3::WifiNetDevice/Phy/State/RxOk ns3::WifiMacHeader (DATA ToDS=0, FromDS=0, MoreFrag=0, Retry=0, MoreData=0 Duration/ID=0us, DA=ff:ff:ff:ff:ff:ff, SA=00:00:00:00:00:01, BSSID=00:00:00:00:00:01, FragNumber=0, SeqNumber=0) ns3::LlcSnapHeader (type 0x806) ns3::ArpHeader (request source mac: 00-06-00:00:00:00:00:01 source ipv4: 10.0.0.1 dest ipv4: 10.0.0.10) ns3::WifiMacTrailer ()
r 0.00511203 OfdmRate6Mbps/NodeList/5/DeviceList/0/$ns3::WifiNetDevice/Phy/State/RxOk ns3::WifiMacHeader (DATA ToDS=0, FromDS=0, MoreFrag=0, Retry=0, MoreData=0 Duration/ID=0us, DA=ff:ff:ff:ff:ff:ff, SA=00:00:00:00:00:01, BSSID=00:00:00:00:00:01, FragNumber=0, SeqNumber=0) ns3::LlcSnapHeader (type 0x806) ns3::ArpHeader (request source mac: 00-06-00:00:00:00:00:01 source ipv4: 10.0.0.1 dest ipv4: 10.0.0.10) ns3::WifiMacTrailer ()
r 0.00511204 OfdmRate6Mbps/NodeList/6/DeviceList/0/$ns3::WifiNetDevice/Phy/State/RxOk ns3::WifiMacHeader (DATA ToDS=0, FromDS=0, MoreFrag=0, Retry=0, MoreData=0 Duration/ID=0us, DA=ff:ff:ff:ff:ff:ff, SA=00:00:00:00:00:01, BSSID=00:00:00:00:00:01, FragNumber=0, SeqNumber=0) ns3::LlcSnapHeader (type 0x806) ns3::ArpHeader (request source mac: 00-06-00:00:00:00:00:01 source ipv4: 10.0.0.1 dest ipv4: 10.0.0.10) ns3::WifiMacTrailer ()
r 0.00511205 OfdmRate6Mbps/NodeList/7/DeviceList/0/$ns3::WifiNetDevice/Phy/State/RxOk ns3::WifiMacHeader (DATA ToDS=0, FromDS=0, MoreFrag=0, Retry=0, MoreData=0 Duration/ID=0us, DA=ff:ff:ff:ff:ff:ff, SA=00:00:00:00:00:01, BSSID=00:00:00:00:00:01, FragNumber=0, SeqNumber=0) ns3::LlcSnapHeader (type 0x806) ns3::ArpHeader (request source mac: 00-06-00:00:00:00:00:01 source ipv4: 10.0.0.1 dest ipv4: 10.0.0.10) ns3::WifiMacTrailer ()
r 0.00511205 OfdmRate6Mbps/NodeList/8/DeviceList/0/$ns3::WifiNetDevice/Phy/State/RxOk ns3::WifiMacHeader (DATA ToDS=0, FromDS=0, MoreFrag=0, Retry=0, MoreData=0 Duration/ID=0us, DA=ff:ff:ff:ff:ff:ff, SA=00:00:00:00:00:01, BSSID=00:00:00:00:00:01, FragNumber=0, SeqNumber=0) ns3::LlcSnapHeader (type 0x806) ns3::ArpHeader (request source mac: 00-06-00:00:00:00:00:01 source ipv4: 10.0.0.1 dest ipv4: 10.0.0.10) ns3::WifiMacTrailer ()
r 0.00511206 OfdmRate6Mbps/NodeList/9/DeviceList/0/$ns3::WifiNetDevice/Phy/State/RxOk ns3::WifiMacHeader (DATA ToDS=0, FromDS=0, MoreFrag=0, Retry=0, MoreData=0 Duration/ID=0us, DA=ff:ff:ff:ff:ff:ff, SA=00:00:00:00:00:01, BSSID=00:00:00:00:00:01, FragNumber=0, SeqNumber=0) ns3::LlcSnapHeader (type 0x806) ns3::ArpHeader (request source mac: 00-06-00:00:00:00:00:01 source ipv4: 10.0.0.1 dest ipv4: 10.0.0.10) ns3::WifiMacTrailer ()
t 0.00524506 /NodeList/9/DeviceList/0/$ns3::WifiNetDevice/Phy/State/Tx OfdmRate6Mbps ns3::WifiMacHeader (CTL_RTS Duration/ID=248us, RA=00:00:00:00:00:01, TA=00:00:00:00:00:0a) ns3::WifiMacTrailer ()
r 0.00529707 OfdmRate6Mbps/NodeList/8/DeviceList/0/$ns3::WifiNetDevice/Phy/State/RxOk ns3::WifiMacHeader (CTL_RTS Duration/ID=248us, RA=00:00:00:00:00:01, TA=00:00:00:00:00:0a) ns3::WifiMacTrailer ()
r 0.00529707 OfdmRate6Mbps/NodeList/7/DeviceList/0/$ns3::WifiNetDevice/Phy/State/RxOk ns3::WifiMacHeader (CTL_RTS Duration/ID=248us, RA=00:00:00:00:00:01, TA=00:00:00:00:00:0a) ns3::WifiMacTrailer ()
r 0.00529708 OfdmRate6Mbps/NodeList/6/DeviceList/0/$ns3::WifiNetDevice/Phy/State/RxOk ns3::WifiMacHeader (CTL_RTS Duration/ID=248us, RA=00:00:00:00:00:01, TA=00:00:00:00:00:0a) ns3::WifiMacTrailer ()
r 0.00529709 OfdmRate6Mbps/NodeList/5/DeviceList/0/$ns3::WifiNetDevice/Phy/State/RxOk ns3::WifiMacHeader (CTL_RTS Duration/ID=248us, RA=00:00:00:00:00:01, TA=00:00:00:00:00:0a) ns3::WifiMacTrailer ()
r 0.00529709 OfdmRate6Mbps/NodeList/4/DeviceList/0/$ns3::WifiNetDevice/Phy/State/RxOk ns3::WifiMacHeader (CTL_RTS Duration/ID=248us, RA=00:00:00:00:00:01, TA=00:00:00:00:00:0a) ns3::WifiMacTrailer ()
r 0.0052971 OfdmRate6Mbps/NodeList/3/DeviceList/0/$ns3::WifiNetDevice/Phy/State/RxOk ns3::WifiMacHeader (CTL_RTS Duration/ID=248us, RA=00:00:00:00:00:01, TA=00:00:00:00:00:0a) ns3::WifiMacTrailer ()
r 0.00529711 OfdmRate6Mbps/NodeList/2/DeviceList/0/$ns3::WifiNetDevice/Phy/State/RxOk ns3::WifiMacHeader (CTL_RTS Duration/ID=248us, RA=00:00:00:00:00:01, TA=00:00:00:00:00:0a) ns3::WifiMacTrailer ()
r 0.00529711 OfdmRate6Mbps/NodeList/1/DeviceList/0/$ns3::WifiNetDevice/Phy/State/RxOk ns3::WifiMacHeader (CTL_RTS Duration/ID=248us, RA=00:00:00:00:00:01, TA=00:00:00:00:00:0a) ns3::WifiMacTrailer ()
r 0.00529712 OfdmRate6Mbps/NodeList/0/DeviceList/0/$ns3::WifiNetDevice/Phy/State/RxOk ns3::WifiMacHeader (CTL_RTS Duration/ID=248us, RA=00:00:00:00:00:01, TA=00:00:00:00:00:0a) ns3::WifiMacTrailer ()
t 0.00531312 /NodeList/0/DeviceList/0/$ns3::WifiNetDevice/Phy/State/Tx OfdmRate6Mbps ns3::WifiMacHeader (CTL_CTS Duration/ID=188us, RA=00:00:00:00:00:0a) ns3::WifiMacTrailer ()
r 0.00535713 OfdmRate6Mbps/NodeList/1/DeviceList/0/$ns3::WifiNetDevice/Phy/State/RxOk ns3::WifiMacHeader (CTL_CTS Duration/ID=188us, RA=00:00:00:00:00:0a) ns3::WifiMacTrailer ()
r 0.00535713 OfdmRate6Mbps/NodeList/2/DeviceList/0/$ns3::WifiNetDevice/Phy/State/RxOk ns3::WifiMacHeader (CTL_CTS Duration/ID=188us, RA=00:00:00:00:00:0a) ns3::WifiMacTrailer ()
r 0.00535714 OfdmRate6Mbps/NodeList/3/DeviceList/0/$ns3::WifiNetDevice/Phy/State/RxOk ns3::WifiMacHeader (CTL_CTS Duration/ID=188us, RA=00:00:00:00:00:0a) ns3::WifiMacTrailer ()
r 0.00535715 OfdmRate6Mbps/NodeList/4/DeviceList/0/$ns3::WifiNetDevice/Phy/State/RxOk ns3::WifiMacHeader (CTL_CTS Duration/ID=188us, RA=00:00:00:00:00:0a) ns3::WifiMacTrailer ()
r 0.00535715 OfdmRate6Mbps/NodeList/5/DeviceList/0/$ns3::WifiNetDevice/Phy/State/RxOk ns3::WifiMacHeader (CTL_CTS Duration/ID=188us, RA=00:00:00:00:00:0a) ns3::WifiMacTrailer ()
r 0.00535716 OfdmRate6Mbps/NodeList/6/DeviceList/0/$ns3::WifiNetDevice/Phy/State/RxOk ns3::WifiMacHeader (CTL_CTS Duration/ID=188us, RA=00:00:00:00:00:0a) ns3::WifiMacTrailer ()
r 0.00535717 OfdmRate6Mbps/NodeList/7/DeviceList/0/$ns3::WifiNetDevice/Phy/State/RxOk ns3::WifiMacHeader (CTL_CTS Duration/ID=188us, RA=00:00:00:00:00:0a) ns3::WifiMacTrailer ()
r 0.00535717 OfdmRate6Mbps/NodeList/8/DeviceList/0/$ns3::WifiNetDevice/Phy/State/RxOk ns3::WifiMacHeader (CTL_CTS Duration/ID=188us, RA=00:00:00:00:00:0a) ns3::WifiMacTrailer ()
r 0.00535718 OfdmRate6Mbps/NodeList/9/DeviceList/0/$ns3::WifiNetDevice/Phy/State/RxOk ns3::WifiMacHeader (CTL_CTS Duration/ID=188us, RA=00:00:00:00:00:0a) ns3::WifiMacTrailer ()
t 0.00537318 /NodeList/9/DeviceList/0/$ns3::WifiNetDevice/Phy/State/Tx OfdmRate6Mbps ns3::WifiMacHeader (DATA ToDS=0, FromDS=0, MoreFrag=0, Retry=0, MoreData=0 Duration/ID=60us, DA=00:00:00:00:00:01, SA=00:00:00:00:00:0a, BSSID=00:00:00:00:00:0a, FragNumber=0, SeqNumber=0) ns3::LlcSnapHeader (type 0x806) ns3::ArpHeader (reply source mac: 00-06-00:00:00:00:00:0a source ipv4: 10.0.0.10 dest mac: 00-06-00:00:00:00:00:01 dest ipv4: 10.0.0.1) ns3::WifiMacTrailer ()
r 0.00548519 OfdmRate6Mbps/NodeList/8/DeviceList/0/$ns3::WifiNetDevice/Phy/State/RxOk ns3::WifiMacHeader (DATA ToDS=0, FromDS=0, MoreFrag=0, Retry=0, MoreData=0 Duration/ID=60us, DA=00:00:00:00:00:01, SA=00:00:00:00:00:0a, BSSID=00:00:00:00:00:0a, FragNumber=0, SeqNumber=0) ns3::LlcSnapHeader (type 0x806) ns3::ArpHeader (reply source mac: 00-06-00:00:00:00:00:0a source ipv4: 10.0.0.10 dest mac: 00-06-00:00:00:00:00:01 dest ipv4: 10.0.0.1) ns3::WifiMacTrailer ()
r 0.00548519 OfdmRate6Mbps/NodeList/7/DeviceList/0/$ns3::WifiNetDevice/Phy/State/RxOk ns3::WifiMacHeader (DATA ToDS=0, FromDS=0, MoreFrag=0, Retry=0, MoreData=0 Duration/ID=60us, DA=00:00:00:00:00:01, SA=00:00:00:00:00:0a, BSSID=00:00:00:00:00:0a, FragNumber=0, SeqNumber=0) ns3::LlcSnapHeader (type 0x806) ns3::ArpHeader (reply source mac: 00-06-00:00:00:00:00:0a source ipv4: 10.0.0.10 dest mac: 00-06-00:00:00:00:00:01 dest ipv4: 10.0.0.1) ns3::WifiMacTrailer ()
r 0.0054852 OfdmRate6Mbps/NodeList/6/DeviceList/0/$ns3::WifiNetDevice/Phy/State/RxOk ns3::WifiMacHeader (DATA ToDS=0, FromDS=0, MoreFrag=0, Retry=0, MoreData=0 Duration/ID=60us, DA=00:00:00:00:00:01, SA=00:00:00:00:00:0a, BSSID=00:00:00:00:00:0a, FragNumber=0, SeqNumber=0) ns3::LlcSnapHeader (type 0x806) ns3::ArpHeader (reply source mac: 00-06-00:00:00:00:00:0a source ipv4: 10.0.0.10 dest mac: 00-06-00:00:00:00:00:01 dest ipv4: 10.0.0.1) ns3::WifiMacTrailer ()
r 0.00548521 OfdmRate6Mbps/NodeList/5/DeviceList/0/$ns3::WifiNetDevice/Phy/State/RxOk ns3::WifiMacHeader (DATA ToDS=0, FromDS=0, MoreFrag=0, Retry=0, MoreData=0 Duration/ID=60us, DA=00:00:00:00:00:01, SA=00:00:00:00:00:0a, BSSID=00:00:00:00:00:0a, FragNumber=0, SeqNumber=0) ns3::LlcSnapHeader (type 0x806) ns3::ArpHeader (reply source mac: 00-06-00:00:00:00:00:0a source ipv4: 10.0.0.10 dest mac: 00-06-00:00:00:00:00:01 dest ipv4: 10.0.0.1) ns3::WifiMacTrailer ()
r 0.00548521 OfdmRate6Mbps/NodeList/4/DeviceList/0/$ns3::WifiNetDevice/Phy/State/RxOk ns3::WifiMacHeader (DATA ToDS=0, FromDS=0, MoreFrag=0, Retry=0, MoreData=0 Duration/ID=60us, DA=00:00:00:00:00:01, SA=00:00:00:00:00:0a, BSSID=00:00:00:00:00:0a, FragNumber=0, SeqNumber=0) ns3::LlcSnapHeader (type 0x806) ns3::ArpHeader (reply source mac: 00-06-00:00:00:00:00:0a source ipv4: 10.0.0.10 dest mac: 00-06-00:00:00:00:00:01 dest ipv4: 10.0.0.1) ns3::WifiMacTrailer ()
r 0.00548522 OfdmRate6Mbps/NodeList/3/DeviceList/0/$ns3::WifiNetDevice/Phy/State/RxOk ns3::WifiMacHeader (DATA ToDS=0, FromDS=0, MoreFrag=0, Retry=0, MoreData=0 Duration/ID=60us, DA=00:00:00:00:00:01, SA=00:00:00:00:00:0a, BSSID=00:00:00:00:00:0a, FragNumber=0, SeqNumber=0) ns3::LlcSnapHeader (type 0x806) ns3::ArpHeader (reply source mac: 00-06-00:00:00:00:00:0a source ipv4: 10.0.0.10 dest mac: 00-06-00:00:00:00:00:01 dest ipv4: 10.0.0.1) ns3::WifiMacTrailer ()
r 0.00548523 OfdmRate6Mbps/NodeList/2/DeviceList/0/$ns3::WifiNetDevice/Phy/State/RxOk ns3::WifiMacHeader (DATA ToDS=0, FromDS=0, MoreFrag=0, Retry=0, MoreData=0 Duration/ID=60us, DA=00:00:00:00:00:01, SA=00:00:00:00:00:0a, BSSID=00:00:00:00:00:0a, FragNumber=0, SeqNumber=0) ns3::LlcSnapHeader (type 0x806) ns3::ArpHeader (reply source mac: 00-06-00:00:00:00:00:0a source ipv4: 10.0.0.10 dest mac: 00-06-00:00:00:00:00:01 dest ipv4: 10.0.0.1) ns3::WifiMacTrailer ()
r 0.00548523 OfdmRate6Mbps/NodeList/1/DeviceList/0/$ns3::WifiNetDevice/Phy/State/RxOk ns3::WifiMacHeader (DATA ToDS=0, FromDS=0, MoreFrag=0, Retry=0, MoreData=0 Duration/ID=60us, DA=00:00:00:00:00:01, SA=00:00:00:00:00:0a, BSSID=00:00:00:00:00:0a, FragNumber=0, SeqNumber=0) ns3::LlcSnapHeader (type 0x806) ns3::ArpHeader (reply source mac: 00-06-00:00:00:00:00:0a source ipv4: 10.0.0.10 dest mac: 00-06-00:00:00:00:00:01 dest ipv4: 10.0.0.1) ns3::WifiMacTrailer ()
r 0.00548524 OfdmRate6Mbps/NodeList/0/DeviceList/0/$ns3::WifiNetDevice/Phy/State/RxOk ns3::WifiMacHeader (DATA ToDS=0, FromDS=0, MoreFrag=0, Retry=0, MoreData=0 Duration/ID=60us, DA=00:00:00:00:00:01, SA=00:00:00:00:00:0a, BSSID=00:00:00:00:00:0a, FragNumber=0, SeqNumber=0) ns3::LlcSnapHeader (type 0x806) ns3::ArpHeader (reply source mac: 00-06-00:00:00:00:00:0a source ipv4: 10.0.0.10 dest mac: 00-06-00:00:00:00:00:01 dest ipv4: 10.0.0.1) ns3::WifiMacTrailer ()
t 0.00550124 /NodeList/0/DeviceList/0/$ns3::WifiNetDevice/Phy/State/Tx OfdmRate6Mbps ns3::WifiMacHeader (CTL_ACK Duration/ID=0us, RA=00:00:00:00:00:0a) ns3::WifiMacTrailer ()
r 0.00554525 OfdmRate6Mbps/NodeList/1/DeviceList/0/$ns3::WifiNetDevice/Phy/State/RxOk ns3::WifiMacHeader (CTL_ACK Duration/ID=0us, RA=00:00:00:00:00:0a) ns3::WifiMacTrailer ()
r 0.00554525 OfdmRate6Mbps/NodeList/2/DeviceList/0/$ns3::WifiNetDevice/Phy/State/RxOk ns3::WifiMacHeader (CTL_ACK Duration/ID=0us, RA=00:00:00:00:00:0a) ns3::WifiMacTrailer ()
r 0.00554526 OfdmRate6Mbps/NodeList/3/DeviceList/0/$ns3::WifiNetDevice/Phy/State/RxOk ns3::WifiMacHeader (CTL_ACK Duration/ID=0us, RA=00:00:00:00:00:0a) ns3::WifiMacTrailer ()
r 0.00554527 OfdmRate6Mbps/NodeList/4/DeviceList/0/$ns3::WifiNetDevice/Phy/State/RxOk ns3::WifiMacHeader (CTL_ACK Duration/ID=0us, RA=00:00:00:00:00:0a) ns3::WifiMacTrailer ()
r 0.00554527 OfdmRate6Mbps/NodeList/5/DeviceList/0/$ns3::WifiNetDevice/Phy/State/RxOk ns3::WifiMacHeader (CTL_ACK Duration/ID=0us, RA=00:00:00:00:00:0a) ns3::WifiMacTrailer ()
r 0.00554528 OfdmRate6Mbps/NodeList/6/DeviceList/0/$ns3::WifiNetDevice/Phy/State/RxOk ns3::WifiMacHeader (CTL_ACK Duration/ID=0us, RA=00:00:00:00:00:0a) ns3::WifiMacTrailer ()
r 0.00554529 OfdmRate6Mbps/NodeList/7/DeviceList/0/$ns3::WifiNetDevice/Phy/State/RxOk ns3::WifiMacHeader (CTL_ACK Duration/ID=0us, RA=00:00:00:00:00:0a) ns3::WifiMacTrailer ()
r 0.00554529 OfdmRate6Mbps/NodeList/8/DeviceList/0/$ns3::WifiNetDevice/Phy/State/RxOk ns3::WifiMacHeader (CTL_ACK Duration/ID=0us, RA=00:00:00:00:00:0a) ns3::WifiMacTrailer ()
r 0.0055453 OfdmRate6Mbps/NodeList/9/DeviceList/0/$ns3::WifiNetDevice/Phy/State/RxOk ns3::WifiMacHeader (CTL_ACK Duration/ID=0us, RA=00:00:00:00:00:0a) ns3::WifiMacTrailer ()
t 0.00558824 /NodeList/0/DeviceList/0/$ns3::WifiNetDevice/Phy/State/Tx OfdmRate6Mbps ns3::WifiMacHeader (CTL_RTS Duration/ID=320us, RA=00:00:00:00:00:0a, TA=00:00:00:00:00:01) ns3::WifiMacTrailer ()
r 0.00564025 OfdmRate6Mbps/NodeList/1/DeviceList/0/$ns3::WifiNetDevice/Phy/State/RxOk ns3::WifiMacHeader (CTL_RTS Duration/ID=320us, RA=00:00:00:00:00:0a, TA=00:00:00:00:00:01) ns3::WifiMacTrailer ()
r 0.00564025 OfdmRate6Mbps/NodeList/2/DeviceList/0/$ns3::WifiNetDevice/Phy/State/RxOk ns3::WifiMacHeader (CTL_RTS Duration/ID=320us, RA=00:00:00:00:00:0a, TA=00:00:00:00:00:01) ns3::WifiMacTrailer ()
r 0.00564026 OfdmRate6Mbps/NodeList/3/DeviceList/0/$ns3::WifiNetDevice/Phy/State/RxOk ns3::WifiMacHeader (CTL_RTS Duration/ID=320us, RA=00:00:00:00:00:0a, TA=00:00:00:00:00:01) ns3::WifiMacTrailer ()
r 0.00564027 OfdmRate6Mbps/NodeList/4/DeviceList/0/$ns3::WifiNetDevice/Phy/State/RxOk ns3::WifiMacHeader (CTL_RTS Duration/ID=320us, RA=00:00:00:00:00:0a, TA=00:00:00:00:00:01) ns3::WifiMacTrailer ()
r 0.00564027 OfdmRate6Mbps/NodeList/5/DeviceList/0/$ns3::WifiNetDevice/Phy/State/RxOk ns3::WifiMacHeader (CTL_RTS Duration/ID=320us, RA=00:00:00:00:00:0a, TA=00:00:00:00:00:01) ns3::WifiMacTrailer ()
r 0.00564028 OfdmRate6Mbps/NodeList/6/DeviceList/0/$ns3::WifiNetDevice/Phy/State/RxOk ns3::WifiMacHeader (CTL_RTS Duration/ID=320us, RA=00:00:00:00:00:0a, TA=00:00:00:00:00:01) ns3::WifiMacTrailer ()
r 0.00564029 OfdmRate6Mbps/NodeList/7/DeviceList/0/$ns3::WifiNetDevice/Phy/State/RxOk ns3::WifiMacHeader (CTL_RTS Duration/ID=320us, RA=00:00:00:00:00:0a, TA=00:00:00:00:00:01) ns3::WifiMacTrailer ()
r 0.00564029 OfdmRate6Mbps/NodeList/8/DeviceList/0/$ns3::WifiNetDevice/Phy/State/RxOk ns3::WifiMacHeader (CTL_RTS Duration/ID=320us, RA=00:00:00:00:00:0a, TA=00:00:00:00:00:01) ns3::WifiMacTrailer ()
r 0.0056403 OfdmRate6Mbps/NodeList/9/DeviceList/0/$ns3::WifiNetDevice/Phy/State/RxOk ns3::WifiMacHeader (CTL_RTS Duration/ID=320us, RA=00:00:00:00:00:0a, TA=00:00:00:00:00:01) ns3::WifiMacTrailer ()
t 0.0056563 /NodeList/9/DeviceList/0/$ns3::WifiNetDevice/Phy/State/Tx OfdmRate6Mbps ns3::WifiMacHeader (CTL_CTS Duration/ID=260us, RA=00:00:00:00:00:01) ns3::WifiMacTrailer ()
r 0.00570031 OfdmRate6Mbps/NodeList/8/DeviceList/0/$ns3::WifiNetDevice/Phy/State/RxOk ns3::WifiMacHeader (CTL_CTS Duration/ID=260us, RA=00:00:00:00:00:01) ns3::WifiMacTrailer ()
r 0.00570031 OfdmRate6Mbps/NodeList/7/DeviceList/0/$ns3::WifiNetDevice/Phy/State/RxOk ns3::WifiMacHeader (CTL_CTS Duration/ID=260us, RA=00:00:00:00:00:01) ns3::WifiMacTrailer ()
r 0.00570032 OfdmRate6Mbps/NodeList/6/DeviceList/0/$ns3::WifiNetDevice/Phy/State/RxOk ns3::WifiMacHeader (CTL_CTS Duration/ID=260us, RA=00:00:00:00:00:01) ns3::WifiMacTrailer ()
r 0.00570033 OfdmRate6Mbps/NodeList/5/DeviceList/0/$ns3::WifiNetDevice/Phy/State/RxOk ns3::WifiMacHeader (CTL_CTS Duration/ID=260us, RA=00:00:00:00:00:01) ns3::WifiMacTrailer ()
r 0.00570033 OfdmRate6Mbps/NodeList/4/DeviceList/0/$ns3::WifiNetDevice/Phy/State/RxOk ns3::WifiMacHeader (CTL_CTS Duration/ID=260us, RA=00:00:00:00:00:01) ns3::WifiMacTrailer ()
r 0.00570034 OfdmRate6Mbps/NodeList/3/DeviceList/0/$ns3::WifiNetDevice/Phy/State/RxOk ns3::WifiMacHeader (CTL_CTS Duration/ID=260us, RA=00:00:00:00:00:01) ns3::WifiMacTrailer ()
r 0.00570035 OfdmRate6Mbps/NodeList/2/DeviceList/0/$ns3::WifiNetDevice/Phy/State/RxOk ns3::WifiMacHeader (CTL_CTS Duration/ID=260us, RA=00:00:00:00:00:01) ns3::WifiMacTrailer ()
r 0.00570035 OfdmRate6Mbps/NodeList/1/DeviceList/0/$ns3::WifiNetDevice/Phy/State/RxOk ns3::WifiMacHeader (CTL_CTS Duration/ID=260us, RA=00:00:00:00:00:01) ns3::WifiMacTrailer ()
r 0.00570036 OfdmRate6Mbps/NodeList/0/DeviceList/0/$ns3::WifiNetDevice/Phy/State/RxOk ns3::WifiMacHeader (CTL_CTS Duration/ID=260us, RA=00:00:00:00:00:01) ns3::WifiMacTrailer ()
t 0.00571636 /NodeList/0/DeviceList/0/$ns3::WifiNetDevice/Phy/State/Tx OfdmRate6Mbps ns3::WifiMacHeader (DATA ToDS=0, FromDS=0, MoreFrag=0, Retry=0, MoreData=0 Duration/ID=60us, DA=00:00:00:00:00:0a, SA=00:00:00:00:00:01, BSSID=00:00:00:00:00:01, FragNumber=0, SeqNumber=1) ns3::LlcSnapHeader (type 0x800) ns3::Ipv4Header (tos 0x0 DSCP Default ECN Not-ECT ttl 64 id 0 protocol 1 offset (bytes) 0 flags [none] length: 84 10.0.0.1 > 10.0.0.10) ns3::Icmpv4Header (type=8, code=0) ns3::Icmpv4Echo (identifier=0, sequence=0, data size=60) ns3::WifiMacTrailer ()
r 0.00590037 OfdmRate6Mbps/NodeList/1/DeviceList/0/$ns3::WifiNetDevice/Phy/State/RxOk ns3::WifiMacHeader (DATA ToDS=0, FromDS=0, MoreFrag=0, Retry=0, MoreData=0 Duration/ID=60us, DA=00:00:00:00:00:0a, SA=00:00:00:00:00:01, BSSID=00:00:00:00:00:01, FragNumber=0, SeqNumber=1) ns3::LlcSnapHeader (type 0x800) ns3::Ipv4Header (tos 0x0 DSCP Default ECN Not-ECT ttl 64 id 0 protocol 1 offset (bytes) 0 flags [none] length: 84 10.0.0.1 > 10.0.0.10) ns3::Icmpv4Header (type=8, code=0) ns3::Icmpv4Echo (identifier=0, sequence=0, data size=60) ns3::WifiMacTrailer ()
r 0.00590037 OfdmRate6Mbps/NodeList/2/DeviceList/0/$ns3::WifiNetDevice/Phy/State/RxOk ns3::WifiMacHeader (DATA ToDS=0, FromDS=0, MoreFrag=0, Retry=0, MoreData=0 Duration/ID=60us, DA=00:00:00:00:00:0a, SA=00:00:00:00:00:01, BSSID=00:00:00:00:00:01, FragNumber=0, SeqNumber=1) ns3::LlcSnapHeader (type 0x800) ns3::Ipv4Header (tos 0x0 DSCP Default ECN Not-ECT ttl 64 id 0 protocol 1 offset (bytes) 0 flags [none] length: 84 10.0.0.1 > 10.0.0.10) ns3::Icmpv4Header (type=8, code=0) ns3::Icmpv4Echo (identifier=0, sequence=0, data size=60) ns3::WifiMacTrailer ()
r 0.00590038 OfdmRate6Mbps/NodeList/3/DeviceList/0/$ns3::WifiNetDevice/Phy/State/RxOk ns3::WifiMacHeader (DATA ToDS=0, FromDS=0, MoreFrag=0, Retry=0, MoreData=0 Duration/ID=60us, DA=00:00:00:00:00:0a, SA=00:00:00:00:00:01, BSSID=00:00:00:00:00:01, FragNumber=0, SeqNumber=1) ns3::LlcSnapHeader (type 0x800) ns3::Ipv4Header (tos 0x0 DSCP Default ECN Not-ECT ttl 64 id 0 protocol 1 offset (bytes) 0 flags [none] length: 84 10.0.0.1 > 10.0.0.10) ns3::Icmpv4Header (type=8, code=0) ns3::Icmpv4Echo (identifier=0, sequence=0, data size=60) ns3::WifiMacTrailer ()
r 0.00590039 OfdmRate6Mbps/NodeList/4/DeviceList/0/$ns3::WifiNetDevice/Phy/State/RxOk ns3::WifiMacHeader (DATA ToDS=0, FromDS=0, MoreFrag=0, Retry=0, MoreData=0 Duration/ID=60us, DA=00:00:00:00:00:0a, SA=00:00:00:00:00:01, BSSID=00:00:00:00:00:01, FragNumber=0, SeqNumber=1) ns3::LlcSnapHeader (type 0x800) ns3::Ipv4Header (tos 0x0 DSCP Default ECN Not-ECT ttl 64 id 0 protocol 1 offset (bytes) 0 flags [none] length: 84 10.0.0.1 > 10.0.0.10) ns3::Icmpv4Header (type=8, code=0) ns3::Icmpv4Echo (identifier=0, sequence=0, data size=60) ns3::WifiMacTrailer ()
r 0.00590039 OfdmRate6Mbps/NodeList/5/DeviceList/0/$ns3::WifiNetDevice/Phy/State/RxOk ns3::WifiMacHeader (DATA ToDS=0, FromDS=0, MoreFrag=0, Retry=0, MoreData=0 Duration/ID=60us, DA=00:00:00:00:00:0a, SA=00:00:00:00:00:01, BSSID=00:00:00:00:00:01, FragNumber=0, SeqNumber=1) ns3::LlcSnapHeader (type 0x800) ns3::Ipv4Header (tos 0x0 DSCP Default ECN Not-ECT ttl 64 id 0 protocol 1 offset (bytes) 0 flags [none] length: 84 10.0.0.1 > 10.0.0.10) ns3::Icmpv4Header (type=8, code=0) ns3::Icmpv4Echo (identifier=0, sequence=0, data size=60) ns3::WifiMacTrailer ()
r 0.0059004 OfdmRate6Mbps/NodeList/6/DeviceList/0/$ns3::WifiNetDevice/Phy/State/RxOk ns3::WifiMacHeader (DATA ToDS=0, FromDS=0, MoreFrag=0, Retry=0, MoreData=0 Duration/ID=60us, DA=00:00:00:00:00:0a, SA=00:00:00:00:00:01, BSSID=00:00:00:00:00:01, FragNumber=0, SeqNumber=1) ns3::LlcSnapHeader (type 0x800) ns3::Ipv4Header (tos 0x0 DSCP Default ECN Not-ECT ttl 64 id 0 protocol 1 offset (bytes) 0 flags [none] length: 84 10.0.0.1 > 10.0.0.10) ns3::Icmpv4Header (type=8, code=0) ns3::Icmpv4Echo (identifier=0, sequence=0, data size=60) ns3::WifiMacTrailer ()
r 0.00590041 OfdmRate6Mbps/NodeList/7/DeviceList/0/$ns3::WifiNetDevice/Phy/State/RxOk ns3::WifiMacHeader (DATA ToDS=0, FromDS=0, MoreFrag=0, Retry=0, MoreData=0 Duration/ID=60us, DA=00:00:00:00:00:0a, SA=00:00:00:00:00:01, BSSID=00:00:00:00:00:01, FragNumber=0, SeqNumber=1) ns3::LlcSnapHeader (type 0x800) ns3::Ipv4Header (tos 0x0 DSCP Default ECN Not-ECT ttl 64 id 0 protocol 1 offset (bytes) 0 flags [none] length: 84 10.0.0.1 > 10.0.0.10) ns3::Icmpv4Header (type=8, code=0) ns3::Icmpv4Echo (identifier=0, sequence=0, data size=60) ns3::WifiMacTrailer ()
r 0.00590041 OfdmRate6Mbps/NodeList/8/DeviceList/0/$ns3::WifiNetDevice/Phy/State/RxOk ns3::WifiMacHeader (DATA ToDS=0, FromDS=0, MoreFrag=0, Retry=0, MoreData=0 Duration/ID=60us, DA=00:00:00:00:00:0a, SA=00:00:00:00:00:01, BSSID=00:00:00:00:00:01, FragNumber=0, SeqNumber=1) ns3::LlcSnapHeader (type 0x800) ns3::Ipv4Header (tos 0x0 DSCP Default ECN Not-ECT ttl 64 id 0 protocol 1 offset (bytes) 0 flags [none] length: 84 10.0.0.1 > 10.0.0.10) ns3::Icmpv4Header (type=8, code=0) ns3::Icmpv4Echo (identifier=0, sequence=0, data size=60) ns3::WifiMacTrailer ()
r 0.00590042 OfdmRate6Mbps/NodeList/9/DeviceList/0/$ns3::WifiNetDevice/Phy/State/RxOk ns3::WifiMacHeader (DATA ToDS=0, FromDS=0, MoreFrag=0, Retry=0, MoreData=0 Duration/ID=60us, DA=00:00:00:00:00:0a, SA=00:00:00:00:00:01, BSSID=00:00:00:00:00:01, FragNumber=0, SeqNumber=1) ns3::LlcSnapHeader (type 0x800) ns3::Ipv4Header (tos 0x0 DSCP Default ECN Not-ECT ttl 64 id 0 protocol 1 offset (bytes) 0 flags [none] length: 84 10.0.0.1 > 10.0.0.10) ns3::Icmpv4Header (type=8, code=0) ns3::Icmpv4Echo (identifier=0, sequence=0, data size=60) ns3::WifiMacTrailer ()
t 0.00591642 /NodeList/9/DeviceList/0/$ns3::WifiNetDevice/Phy/State/Tx OfdmRate6Mbps ns3::WifiMacHeader (CTL_ACK Duration/ID=0us, RA=00:00:00:00:00:01) ns3::WifiMacTrailer ()
r 0.00596043 OfdmRate6Mbps/NodeList/8/DeviceList/0/$ns3::WifiNetDevice/Phy/State/RxOk ns3::WifiMacHeader (CTL_ACK Duration/ID=0us, RA=00:00:00:00:00:01) ns3::WifiMacTrailer ()
r 0.00596043 OfdmRate6Mbps/NodeList/7/DeviceList/0/$ns3::WifiNetDevice/Phy/State/RxOk ns3::WifiMacHeader (CTL_ACK Duration/ID=0us, RA=00:00:00:00:00:01) ns3::WifiMacTrailer ()
r 0.00596044 OfdmRate6Mbps/NodeList/6/DeviceList/0/$ns3::WifiNetDevice/Phy/State/RxOk ns3::WifiMacHeader (CTL_ACK Duration/ID=0us, RA=00:00:00:00:00:01) ns3::WifiMacTrailer ()
r 0.00596045 OfdmRate6Mbps/NodeList/5/DeviceList/0/$ns3::WifiNetDevice/Phy/State/RxOk ns3::WifiMacHeader (CTL_ACK Duration/ID=0us, RA=00:00:00:00:00:01) ns3::WifiMacTrailer ()
r 0.00596045 OfdmRate6Mbps/NodeList/4/DeviceList/0/$ns3::WifiNetDevice/Phy/State/RxOk ns3::WifiMacHeader (CTL_ACK Duration/ID=0us, RA=00:00:00:00:00:01) ns3::WifiMacTrailer ()
r 0.00596046 OfdmRate6Mbps/NodeList/3/DeviceList/0/$ns3::WifiNetDevice/Phy/State/RxOk ns3::WifiMacHeader (CTL_ACK Duration/ID=0us, RA=00:00:00:00:00:01) ns3::WifiMacTrailer ()
r 0.00596047 OfdmRate6Mbps/NodeList/2/DeviceList/0/$ns3::WifiNetDevice/Phy/State/RxOk ns3::WifiMacHeader (CTL_ACK Duration/ID=0us, RA=00:00:00:00:00:01) ns3::WifiMacTrailer ()
r 0.00596047 OfdmRate6Mbps/NodeList/1/DeviceList/0/$ns3::WifiNetDevice/Phy/State/RxOk ns3::WifiMacHeader (CTL_ACK Duration/ID=0us, RA=00:00:00:00:00:01) ns3::WifiMacTrailer ()
r 0.00596048 OfdmRate6Mbps/NodeList/0/DeviceList/0/$ns3::WifiNetDevice/Phy/State/RxOk ns3::WifiMacHeader (CTL_ACK Duration/ID=0us, RA=00:00:00:00:00:01) ns3::WifiMacTrailer ()
t 0.0129004 /NodeList/9/DeviceList/0/$ns3::WifiNetDevice/Phy/State/Tx OfdmRate6Mbps ns3::WifiMacHeader (DATA ToDS=0, FromDS=0, MoreFrag=0, Retry=0, MoreData=0 Duration/ID=0us, DA=ff:ff:ff:ff:ff:ff, SA=00:00:00:00:00:0a, BSSID=00:00:00:00:00:0a, FragNumber=0, SeqNumber=1) ns3::LlcSnapHeader (type 0x806) ns3::ArpHeader (request source mac: 00-06-00:00:00:00:00:0a source ipv4: 10.0.0.10 dest ipv4: 10.0.0.1) ns3::WifiMacTrailer ()
r 0.0130124 OfdmRate6Mbps/NodeList/8/DeviceList/0/$ns3::WifiNetDevice/Phy/State/RxOk ns3::WifiMacHeader (DATA ToDS=0, FromDS=0, MoreFrag=0, Retry=0, MoreData=0 Duration/ID=0us, DA=ff:ff:ff:ff:ff:ff, SA=00:00:00:00:00:0a, BSSID=00:00:00:00:00:0a, FragNumber=0, SeqNumber=1) ns3::LlcSnapHeader (type 0x806) ns3::ArpHeader (request source mac: 00-06-00:00:00:00:00:0a source ipv4: 10.0.0.10 dest ipv4: 10.0.0.1) ns3::WifiMacTrailer ()
r 0.0130124 OfdmRate6Mbps/NodeList/7/DeviceList/0/$ns3::WifiNetDevice/Phy/State/RxOk ns3::WifiMacHeader (DATA ToDS=0, FromDS=0, MoreFrag=0, Retry=0, MoreData=0 Duration/ID=0us, DA=ff:ff:ff:ff:ff:ff, SA=00:00:00:00:00:0a, BSSID=00:00:00:00:00:0a, FragNumber=0, SeqNumber=1) ns3::LlcSnapHeader (type 0x806) ns3::ArpHeader (request source mac: 00-06-00:00:00:00:00:0a source ipv4: 10.0.0.10 dest ipv4: 10.0.0.1) ns3::WifiMacTrailer ()
r 0.0130124 OfdmRate6Mbps/NodeList/6/DeviceList/0/$ns3::WifiNetDevice/Phy/State/RxOk ns3::WifiMacHeader (DATA ToDS=0, FromDS=0, MoreFrag=0, Retry=0, MoreData=0 Duration/ID=0us, DA=ff:ff:ff:ff:ff:ff, SA=00:00:00:00:00:0a, BSSID=00:00:00:00:00:0a, FragNumber=0, SeqNumber=1) ns3::LlcSnapHeader (type 0x806) ns3::ArpHeader (request source mac: 00-06-00:00:00:00:00:0a source ipv4: 10.0.0.10 dest ipv4: 10.0.0.1) ns3::WifiMacTrailer ()
r 0.0130124 OfdmRate6Mbps/NodeList/5/DeviceList/0/$ns3::WifiNetDevice/Phy/State/RxOk ns3::WifiMacHeader (DATA ToDS=0, FromDS=0, MoreFrag=0, Retry=0, MoreData=0 Duration/ID=0us, DA=ff:ff:ff:ff:ff:ff, SA=00:00:00:00:00:0a, BSSID=00:00:00:00:00:0a, FragNumber=0, SeqNumber=1) ns3::LlcSnapHeader (type 0x806) ns3::ArpHeader (request source mac: 00-06-00:00:00:00:00:0a source ipv4: 10.0.0.10 dest ipv4: 10.0.0.1) ns3::WifiMacTrailer ()
r 0.0130125 OfdmRate6Mbps/NodeList/4/DeviceList/0/$ns3::WifiNetDevice/Phy/State/RxOk ns3::WifiMacHeader (DATA ToDS=0, FromDS=0, MoreFrag=0, Retry=0, MoreData=0 Duration/ID=0us, DA=ff:ff:ff:ff:ff:ff, SA=00:00:00:00:00:0a, BSSID=00:00:00:00:00:0a, FragNumber=0, SeqNumber=1) ns3::LlcSnapHeader (type 0x806) ns3::ArpHeader (request source mac: 00-06-00:00:00:00:00:0a source ipv4: 10.0.0.10 dest ipv4: 10.0.0.1) ns3::WifiMacTrailer ()
r 0.0130125 OfdmRate6Mbps/NodeList/3/DeviceList/0/$ns3::WifiNetDevice/Phy/State/RxOk ns3::WifiMacHeader (DATA ToDS=0, FromDS=0, MoreFrag=0, Retry=0, MoreData=0 Duration/ID=0us, DA=ff:ff:ff:ff:ff:ff, SA=00:00:00:00:00:0a, BSSID=00:00:00:00:00:0a, FragNumber=0, SeqNumber=1) ns3::LlcSnapHeader (type 0x806) ns3::ArpHeader (request source mac: 00-06-00:00:00:00:00:0a source ipv4: 10.0.0.10 dest ipv4: 10.0.0.1) ns3::WifiMacTrailer ()
r 0.0130125 OfdmRate6Mbps/NodeList/2/DeviceList/0/$ns3::WifiNetDevice/Phy/State/RxOk ns3::WifiMacHeader (DATA ToDS=0, FromDS=0, MoreFrag=0, Retry=0, MoreData=0 Duration/ID=0us, DA=ff:ff:ff:ff:ff:ff, SA=00:00:00:00:00:0a, BSSID=00:00:00:00:00:0a, FragNumber=0, SeqNumber=1) ns3::LlcSnapHeader (type 0x806) ns3::ArpHeader (request source mac: 00-06-00:00:00:00:00:0a source ipv4: 10.0.0.10 dest ipv4: 10.0.0.1) ns3::WifiMacTrailer ()
r 0.0130125 OfdmRate6Mbps/NodeList/1/DeviceList/0/$ns3::WifiNetDevice/Phy/State/RxOk ns3::WifiMacHeader (DATA ToDS=0, FromDS=0, MoreFrag=0, Retry=0, MoreData=0 Duration/ID=0us, DA=ff:ff:ff:ff:ff:ff, SA=00:00:00:00:00:0a, BSSID=00:00:00:00:00:0a, FragNumber=0, SeqNumber=1) ns3::LlcSnapHeader (type 0x806) ns3::ArpHeader (request source mac: 00-06-00:00:00:00:00:0a source ipv4: 10.0.0.10 dest ipv4: 10.0.0.1) ns3::WifiMacTrailer ()
r 0.0130125 OfdmRate6Mbps/NodeList/0/DeviceList/0/$ns3::WifiNetDevice/Phy/State/RxOk ns3::WifiMacHeader (DATA ToDS=0, FromDS=0, MoreFrag=0, Retry=0, MoreData=0 Duration/ID=0us, DA=ff:ff:ff:ff:ff:ff, SA=00:00:00:00:00:0a, BSSID=00:00:00:00:00:0a, FragNumber=0, SeqNumber=1) ns3::LlcSnapHeader (type 0x806) ns3::ArpHeader (request source mac: 00-06-00:00:00:00:00:0a source ipv4: 10.0.0.10 dest ipv4: 10.0.0.1) ns3::WifiMacTrailer ()